REMARK  Name = ../resources/tmp/bioai_ga_427568/p_PWPWFD_427568/PWPWFD_427568.pdb
REMARK  20 active torsions:
REMARK  status: ('A' for Active; 'I' for Inactive)
REMARK    1  A    between atoms: CA_2  and  C_3
REMARK    2  A    between atoms: N_8  and  CA_9
REMARK    3  A    between atoms: CA_9  and  C_10
REMARK    4  A    between atoms: CA_9  and  CB_12
REMARK    5  A    between atoms: CB_12  and  CG_13
REMARK    6  A    between atoms: CA_23  and  C_24
REMARK    7  A    between atoms: N_29  and  CA_30
REMARK    8  A    between atoms: CA_30  and  C_31
REMARK    9  A    between atoms: CA_30  and  CB_33
REMARK   10  A    between atoms: CB_33  and  CG_34
REMARK   11  A    between atoms: N_43  and  CA_44
REMARK   12  A    between atoms: CA_44  and  C_45
REMARK   13  A    between atoms: CA_44  and  CB_47
REMARK   14  A    between atoms: CB_47  and  CG_48
REMARK   15  A    between atoms: N_54  and  CA_55
REMARK   16  A    between atoms: CA_55  and  C_56
REMARK   17  A    between atoms: CA_55  and  CB_58
REMARK   18  A    between atoms: C_56  and  OXT_62
REMARK   19  A    between atoms: CB_58  and  CG_59
REMARK   20  A    between atoms: CG_59  and  OD2_61
REMARK                            x       y       z     vdW  Elec       q    Type
REMARK                         _______ _______ _______ _____ _____    ______ ____
ROOT
ATOM      1  CA  TRP A   4       7.394 -15.684   2.100  0.00  0.00    +0.000 C 
ENDROOT
BRANCH   1   2
ATOM      2  C   TRP A   4       8.852 -15.613   1.599  0.00  0.00    +0.000 C 
ATOM      3  O   TRP A   4       9.816 -15.897   2.309  0.00  0.00    +0.000 OA
ATOM      4  N   PHE A   5       9.001 -15.156   0.305  0.00  0.00    +0.000 N 
ATOM      5  H36 UNL     1       8.285 -14.497  -0.010  0.00  0.00    +0.000 HD
BRANCH   4   6
ATOM      6  CA  PHE A   5      10.321 -14.930  -0.283  0.00  0.00    +0.000 C 
BRANCH   6   7
ATOM      7  C   PHE A   5      10.119 -14.243  -1.649  0.00  0.00    +0.000 C 
ATOM      8  O   PHE A   5       9.086 -14.369  -2.305  0.00  0.00    +0.000 OA
ATOM      9  N   ASP A   6      11.194 -13.528  -2.120  0.00  0.00    +0.000 N 
ATOM     10  H45 UNL     1      12.060 -13.501  -1.583  0.00  0.00    +0.000 HD
BRANCH   9  11
ATOM     11  CA  ASP A   6      11.209 -12.936  -3.460  0.00  0.00    +0.000 C 
BRANCH  11  12
ATOM     12  C   ASP A   6      12.655 -12.662  -3.879  0.00  0.00    +0.000 C 
ATOM     13  O   ASP A   6      13.659 -13.105  -3.346  0.00  0.00    +0.000 OA
BRANCH  12  14
ATOM     14  OXT ASP A   6      12.761 -11.913  -4.996  0.00  0.00    +0.000 OA
ATOM     15  H50 UNL     1      13.727 -11.839  -5.141  0.00  0.00    +0.000 HD
ENDBRANCH  12  14
ENDBRANCH  11  12
BRANCH  11  16
ATOM     16  CB  ASP A   6      10.321 -11.699  -3.584  0.00  0.00    +0.000 C 
BRANCH  16  17
ATOM     17  CG  ASP A   6      10.912 -10.497  -2.904  0.00  0.00    +0.000 C 
ATOM     18  OD1 ASP A   6      11.716 -10.484  -1.987  0.00  0.00    +0.000 OA
BRANCH  17  19
ATOM     19  OD2 ASP A   6      10.410  -9.345  -3.395  0.00  0.00    +0.000 OA
ATOM     20  H49 UNL     1      10.784  -8.643  -2.819  0.00  0.00    +0.000 HD
ENDBRANCH  17  19
ENDBRANCH  16  17
ENDBRANCH  11  16
ENDBRANCH   9  11
ENDBRANCH   6   7
BRANCH   6  21
ATOM     21  CB  PHE A   5      11.084 -16.251  -0.502  0.00  0.00    +0.000 C 
BRANCH  21  22
ATOM     22  CG  PHE A   5      12.584 -16.090  -0.402  0.00  0.00    +0.000 A 
ATOM     23  CD1 PHE A   5      13.386 -16.075  -1.550  0.00  0.00    +0.000 A 
ATOM     24  CD2 PHE A   5      13.189 -15.941   0.854  0.00  0.00    +0.000 A 
ATOM     25  CE1 PHE A   5      14.765 -15.901  -1.443  0.00  0.00    +0.000 A 
ATOM     26  CE2 PHE A   5      14.570 -15.778   0.960  0.00  0.00    +0.000 A 
ATOM     27  CZ  PHE A   5      15.359 -15.758  -0.188  0.00  0.00    +0.000 A 
ENDBRANCH  21  22
ENDBRANCH   6  21
ENDBRANCH   4   6
ENDBRANCH   1   2
BRANCH   1  30
ATOM     28  C   PRO A   3       5.165 -14.960   1.238  0.00  0.00    +0.000 C 
ATOM     29  O   PRO A   3       4.741 -14.684   2.360  0.00  0.00    +0.000 OA
ATOM     30  N   TRP A   4       6.420 -15.475   1.023  0.00  0.00    +0.000 N 
ATOM     31  H26 UNL     1       6.660 -15.802   0.094  0.00  0.00    +0.000 HD
BRANCH  28  35
ATOM     32  C   TRP A   2       5.472 -13.625  -1.911  0.00  0.00    +0.000 C 
ATOM     33  O   TRP A   2       5.815 -13.714  -3.098  0.00  0.00    +0.000 OA
ATOM     34  N   PRO A   3       4.999 -14.760  -1.272  0.00  0.00    +0.000 N 
ATOM     35  CA  PRO A   3       4.261 -14.858  -0.007  0.00  0.00    +0.000 C 
ATOM     36  CB  PRO A   3       3.455 -16.151  -0.150  0.00  0.00    +0.000 C 
ATOM     37  CG  PRO A   3       4.294 -17.007  -1.092  0.00  0.00    +0.000 C 
ATOM     38  CD  PRO A   3       4.859 -15.985  -2.050  0.00  0.00    +0.000 C 
BRANCH  32  39
ATOM     39  CA  TRP A   2       5.358 -12.216  -1.251  0.00  0.00    +0.000 C 
BRANCH  39  42
ATOM     40  C   PRO A   1       6.780 -12.221   0.798  0.00  0.00    +0.000 C 
ATOM     41  O   PRO A   1       7.755 -12.684   0.206  0.00  0.00    +0.000 OA
ATOM     42  N   TRP A   2       5.543 -12.100   0.202  0.00  0.00    +0.000 N 
ATOM     43  H9  UNL     1       4.885 -11.495   0.675  0.00  0.00    +0.000 HD
BRANCH  40  45
ATOM     44  N   PRO A   1       8.175 -12.026   2.857  0.00  0.00    +0.000 NA
ATOM     45  CA  PRO A   1       6.822 -11.810   2.291  0.00  0.00    +0.000 C 
ATOM     46  CB  PRO A   1       6.499 -10.334   2.520  0.00  0.00    +0.000 C 
ATOM     47  CG  PRO A   1       7.663  -9.806   3.343  0.00  0.00    +0.000 C 
ATOM     48  CD  PRO A   1       8.807 -10.716   2.954  0.00  0.00    +0.000 C 
ATOM     49  H1  UNL     1       8.715 -12.627   2.227  0.00  0.00    +0.000 HD
ENDBRANCH  40  45
ENDBRANCH  39  42
BRANCH  39  50
ATOM     50  CB  TRP A   2       6.223 -11.227  -2.071  0.00  0.00    +0.000 C 
BRANCH  50  51
ATOM     51  CG  TRP A   2       6.102  -9.786  -1.659  0.00  0.00    +0.000 A 
ATOM     52  CD1 TRP A   2       5.001  -8.972  -1.845  0.00  0.00    +0.000 A 
ATOM     53  CD2 TRP A   2       7.121  -8.980  -1.059  0.00  0.00    +0.000 A 
ATOM     54  NE1 TRP A   2       5.316  -7.720  -1.396  0.00  0.00    +0.000 N 
ATOM     55  CE2 TRP A   2       6.597  -7.697  -0.900  0.00  0.00    +0.000 A 
ATOM     56  CE3 TRP A   2       8.444  -9.227  -0.636  0.00  0.00    +0.000 A 
ATOM     57  CZ2 TRP A   2       7.338  -6.645  -0.352  0.00  0.00    +0.000 A 
ATOM     58  CZ3 TRP A   2       9.189  -8.186  -0.070  0.00  0.00    +0.000 A 
ATOM     59  CH2 TRP A   2       8.645  -6.915   0.067  0.00  0.00    +0.000 A 
ATOM     60  H14 UNL     1       4.697  -6.919  -1.403  0.00  0.00    +0.000 HD
ENDBRANCH  50  51
ENDBRANCH  39  50
ENDBRANCH  32  39
ENDBRANCH  28  35
ENDBRANCH   1  30
BRANCH   1  61
ATOM     61  CB  TRP A   4       7.148 -16.979   2.894  0.00  0.00    +0.000 C 
BRANCH  61  62
ATOM     62  CG  TRP A   4       7.111 -18.234   2.065  0.00  0.00    +0.000 A 
ATOM     63  CD1 TRP A   4       8.178 -18.821   1.412  0.00  0.00    +0.000 A 
ATOM     64  CD2 TRP A   4       5.973 -19.071   1.825  0.00  0.00    +0.000 A 
ATOM     65  NE1 TRP A   4       7.736 -19.951   0.786  0.00  0.00    +0.000 N 
ATOM     66  CE2 TRP A   4       6.395 -20.133   1.022  0.00  0.00    +0.000 A 
ATOM     67  CE3 TRP A   4       4.618 -19.033   2.220  0.00  0.00    +0.000 A 
ATOM     68  CZ2 TRP A   4       5.537 -21.151   0.595  0.00  0.00    +0.000 A 
ATOM     69  CZ3 TRP A   4       3.747 -20.047   1.806  0.00  0.00    +0.000 A 
ATOM     70  CH2 TRP A   4       4.203 -21.087   1.005  0.00  0.00    +0.000 A 
ATOM     71  H31 UNL     1       8.313 -20.582   0.248  0.00  0.00    +0.000 HD
ENDBRANCH  61  62
ENDBRANCH   1  61
TORSDOF 20
