REMARK  Name = ../resources/tmp/bioai_ga_427425/p_GWPYWW_427425/GWPYWW_427425.pdb
REMARK  21 active torsions:
REMARK  status: ('A' for Active; 'I' for Inactive)
REMARK    1  A    between atoms: N_1  and  CA_2
REMARK    2  A    between atoms: CA_2  and  C_3
REMARK    3  A    between atoms: N_5  and  CA_6
REMARK    4  A    between atoms: CA_6  and  C_7
REMARK    5  A    between atoms: CA_6  and  CB_9
REMARK    6  A    between atoms: CB_9  and  CG_10
REMARK    7  A    between atoms: CA_20  and  C_21
REMARK    8  A    between atoms: N_26  and  CA_27
REMARK    9  A    between atoms: CA_27  and  C_28
REMARK   10  A    between atoms: CA_27  and  CB_30
REMARK   11  A    between atoms: CB_30  and  CG_31
REMARK   12  A    between atoms: CZ_36  and  OH_37
REMARK   13  A    between atoms: N_38  and  CA_39
REMARK   14  A    between atoms: CA_39  and  C_40
REMARK   15  A    between atoms: CA_39  and  CB_42
REMARK   16  A    between atoms: CB_42  and  CG_43
REMARK   17  A    between atoms: N_52  and  CA_53
REMARK   18  A    between atoms: CA_53  and  C_54
REMARK   19  A    between atoms: CA_53  and  CB_56
REMARK   20  A    between atoms: C_54  and  OXT_66
REMARK   21  A    between atoms: CB_56  and  CG_57
REMARK                            x       y       z     vdW  Elec       q    Type
REMARK                         _______ _______ _______ _____ _____    ______ ____
ROOT
ATOM      1  CA  TYR A   4       7.720 -17.163   0.574  0.00  0.00    +0.000 C 
ENDROOT
BRANCH   1   4
ATOM      2  C   PRO A   3       6.783 -15.203   1.768  0.00  0.00    +0.000 C 
ATOM      3  O   PRO A   3       6.986 -15.706   2.871  0.00  0.00    +0.000 OA
ATOM      4  N   TYR A   4       7.055 -15.860   0.595  0.00  0.00    +0.000 N 
ATOM      5  H22 UNL     1       6.996 -15.329  -0.269  0.00  0.00    +0.000 HD
BRANCH   2   9
ATOM      6  C   TRP A   2       7.408 -12.566   0.011  0.00  0.00    +0.000 C 
ATOM      7  O   TRP A   2       8.447 -13.019   0.511  0.00  0.00    +0.000 OA
ATOM      8  N   PRO A   3       6.215 -13.202   0.295  0.00  0.00    +0.000 N 
ATOM      9  CA  PRO A   3       6.053 -13.857   1.605  0.00  0.00    +0.000 C 
ATOM     10  CB  PRO A   3       4.539 -14.066   1.734  0.00  0.00    +0.000 C 
ATOM     11  CG  PRO A   3       4.055 -14.091   0.289  0.00  0.00    +0.000 C 
ATOM     12  CD  PRO A   3       4.933 -13.040  -0.367  0.00  0.00    +0.000 C 
BRANCH   6  13
ATOM     13  CA  TRP A   2       7.470 -11.485  -1.108  0.00  0.00    +0.000 C 
BRANCH  13  16
ATOM     14  C   GLY A   1       6.015  -9.690  -0.231  0.00  0.00    +0.000 C 
ATOM     15  O   GLY A   1       6.432  -9.824   0.913  0.00  0.00    +0.000 OA
ATOM     16  N   TRP A   2       6.328 -10.576  -1.241  0.00  0.00    +0.000 N 
ATOM     17  H5  UNL     1       6.186 -10.215  -2.175  0.00  0.00    +0.000 HD
BRANCH  14  18
ATOM     18  CA  GLY A   1       5.052  -8.558  -0.610  0.00  0.00    +0.000 C 
BRANCH  18  19
ATOM     19  N   GLY A   1       4.903  -8.373  -2.060  0.00  0.00    +0.000 NA
ATOM     20  H1  UNL     1       5.812  -8.202  -2.491  0.00  0.00    +0.000 HD
ATOM     21  H2  UNL     1       4.470  -9.193  -2.479  0.00  0.00    +0.000 HD
ENDBRANCH  18  19
ENDBRANCH  14  18
ENDBRANCH  13  16
BRANCH  13  22
ATOM     22  CB  TRP A   2       8.815 -10.726  -1.019  0.00  0.00    +0.000 C 
BRANCH  22  23
ATOM     23  CG  TRP A   2       9.057  -9.818  -2.188  0.00  0.00    +0.000 A 
ATOM     24  CD1 TRP A   2       8.902  -8.444  -2.213  0.00  0.00    +0.000 A 
ATOM     25  CD2 TRP A   2       9.525 -10.207  -3.484  0.00  0.00    +0.000 A 
ATOM     26  NE1 TRP A   2       9.271  -7.992  -3.452  0.00  0.00    +0.000 N 
ATOM     27  CE2 TRP A   2       9.647  -9.047  -4.252  0.00  0.00    +0.000 A 
ATOM     28  CE3 TRP A   2       9.876 -11.441  -4.073  0.00  0.00    +0.000 A 
ATOM     29  CZ2 TRP A   2      10.097  -9.058  -5.578  0.00  0.00    +0.000 A 
ATOM     30  CZ3 TRP A   2      10.325 -11.470  -5.398  0.00  0.00    +0.000 A 
ATOM     31  CH2 TRP A   2      10.433 -10.294  -6.138  0.00  0.00    +0.000 A 
ATOM     32  H10 UNL     1       9.294  -7.022  -3.738  0.00  0.00    +0.000 HD
ENDBRANCH  22  23
ENDBRANCH  13  22
ENDBRANCH   6  13
ENDBRANCH   2   9
ENDBRANCH   1   4
BRANCH   1  33
ATOM     33  C   TYR A   4       9.217 -17.040   0.220  0.00  0.00    +0.000 C 
ATOM     34  O   TYR A   4       9.883 -18.013  -0.129  0.00  0.00    +0.000 OA
ATOM     35  N   TRP A   5       9.775 -15.791   0.409  0.00  0.00    +0.000 N 
ATOM     36  H31 UNL     1       9.176 -15.011   0.682  0.00  0.00    +0.000 HD
BRANCH  35  37
ATOM     37  CA  TRP A   5      11.111 -15.467  -0.098  0.00  0.00    +0.000 C 
BRANCH  37  38
ATOM     38  C   TRP A   5      11.893 -14.610   0.917  0.00  0.00    +0.000 C 
ATOM     39  O   TRP A   5      12.733 -13.775   0.590  0.00  0.00    +0.000 OA
ATOM     40  N   TRP A   6      11.713 -15.000   2.222  0.00  0.00    +0.000 N 
ATOM     41  H41 UNL     1      11.037 -15.733   2.427  0.00  0.00    +0.000 HD
BRANCH  40  42
ATOM     42  CA  TRP A   6      12.615 -14.599   3.302  0.00  0.00    +0.000 C 
BRANCH  42  43
ATOM     43  C   TRP A   6      12.847 -15.744   4.289  0.00  0.00    +0.000 C 
ATOM     44  O   TRP A   6      13.588 -15.724   5.263  0.00  0.00    +0.000 OA
BRANCH  43  45
ATOM     45  OXT TRP A   6      12.136 -16.862   4.006  0.00  0.00    +0.000 OA
ATOM     46  H51 UNL     1      12.385 -17.485   4.719  0.00  0.00    +0.000 HD
ENDBRANCH  43  45
ENDBRANCH  42  43
BRANCH  42  47
ATOM     47  CB  TRP A   6      12.174 -13.321   4.024  0.00  0.00    +0.000 C 
BRANCH  47  48
ATOM     48  CG  TRP A   6      10.817 -13.372   4.669  0.00  0.00    +0.000 A 
ATOM     49  CD1 TRP A   6      10.419 -14.202   5.701  0.00  0.00    +0.000 A 
ATOM     50  CD2 TRP A   6       9.705 -12.514   4.380  0.00  0.00    +0.000 A 
ATOM     51  NE1 TRP A   6       9.113 -13.926   5.999  0.00  0.00    +0.000 N 
ATOM     52  CE2 TRP A   6       8.665 -12.871   5.238  0.00  0.00    +0.000 A 
ATOM     53  CE3 TRP A   6       9.490 -11.453   3.479  0.00  0.00    +0.000 A 
ATOM     54  CZ2 TRP A   6       7.427 -12.215   5.252  0.00  0.00    +0.000 A 
ATOM     55  CZ3 TRP A   6       8.267 -10.777   3.489  0.00  0.00    +0.000 A 
ATOM     56  CH2 TRP A   6       7.251 -11.151   4.365  0.00  0.00    +0.000 A 
ATOM     57  H46 UNL     1       8.559 -14.395   6.702  0.00  0.00    +0.000 HD
ENDBRANCH  47  48
ENDBRANCH  42  47
ENDBRANCH  40  42
ENDBRANCH  37  38
BRANCH  37  58
ATOM     58  CB  TRP A   5      11.068 -14.794  -1.482  0.00  0.00    +0.000 C 
BRANCH  58  59
ATOM     59  CG  TRP A   5      10.569 -15.709  -2.569  0.00  0.00    +0.000 A 
ATOM     60  CD1 TRP A   5      11.299 -16.711  -3.183  0.00  0.00    +0.000 A 
ATOM     61  CD2 TRP A   5       9.259 -15.743  -3.146  0.00  0.00    +0.000 A 
ATOM     62  NE1 TRP A   5      10.485 -17.354  -4.075  0.00  0.00    +0.000 N 
ATOM     63  CE2 TRP A   5       9.236 -16.779  -4.080  0.00  0.00    +0.000 A 
ATOM     64  CE3 TRP A   5       8.081 -14.996  -2.951  0.00  0.00    +0.000 A 
ATOM     65  CZ2 TRP A   5       8.095 -17.100  -4.828  0.00  0.00    +0.000 A 
ATOM     66  CZ3 TRP A   5       6.936 -15.290  -3.696  0.00  0.00    +0.000 A 
ATOM     67  CH2 TRP A   5       6.946 -16.329  -4.623  0.00  0.00    +0.000 A 
ATOM     68  H36 UNL     1      10.753 -18.149  -4.638  0.00  0.00    +0.000 HD
ENDBRANCH  58  59
ENDBRANCH  37  58
ENDBRANCH  35  37
ENDBRANCH   1  33
BRANCH   1  69
ATOM     69  CB  TYR A   4       7.045 -18.130  -0.421  0.00  0.00    +0.000 C 
BRANCH  69  70
ATOM     70  CG  TYR A   4       5.534 -18.217  -0.309  0.00  0.00    +0.000 A 
ATOM     71  CD1 TYR A   4       4.903 -18.414   0.926  0.00  0.00    +0.000 A 
ATOM     72  CD2 TYR A   4       4.742 -18.109  -1.464  0.00  0.00    +0.000 A 
ATOM     73  CE1 TYR A   4       3.511 -18.472   1.010  0.00  0.00    +0.000 A 
ATOM     74  CE2 TYR A   4       3.349 -18.170  -1.381  0.00  0.00    +0.000 A 
ATOM     75  CZ  TYR A   4       2.745 -18.347  -0.143  0.00  0.00    +0.000 A 
BRANCH  75  76
ATOM     76  OH  TYR A   4       1.390 -18.402  -0.013  0.00  0.00    +0.000 OA
ATOM     77  H30 UNL     1       0.993 -18.342  -0.898  0.00  0.00    +0.000 HD
ENDBRANCH  75  76
ENDBRANCH  69  70
ENDBRANCH   1  69
TORSDOF 21
