REMARK  Name = ../resources/tmp/bioai_ga_427564/p_WWPYWW_427564/WWPYWW_427564.pdb
REMARK  23 active torsions:
REMARK  status: ('A' for Active; 'I' for Inactive)
REMARK    1  A    between atoms: N_1  and  CA_2
REMARK    2  A    between atoms: CA_2  and  C_3
REMARK    3  A    between atoms: CA_2  and  CB_5
REMARK    4  A    between atoms: CB_5  and  CG_6
REMARK    5  A    between atoms: N_15  and  CA_16
REMARK    6  A    between atoms: CA_16  and  C_17
REMARK    7  A    between atoms: CA_16  and  CB_19
REMARK    8  A    between atoms: CB_19  and  CG_20
REMARK    9  A    between atoms: CA_30  and  C_31
REMARK   10  A    between atoms: N_36  and  CA_37
REMARK   11  A    between atoms: CA_37  and  C_38
REMARK   12  A    between atoms: CA_37  and  CB_40
REMARK   13  A    between atoms: CB_40  and  CG_41
REMARK   14  A    between atoms: CZ_46  and  OH_47
REMARK   15  A    between atoms: N_48  and  CA_49
REMARK   16  A    between atoms: CA_49  and  C_50
REMARK   17  A    between atoms: CA_49  and  CB_52
REMARK   18  A    between atoms: CB_52  and  CG_53
REMARK   19  A    between atoms: N_62  and  CA_63
REMARK   20  A    between atoms: CA_63  and  C_64
REMARK   21  A    between atoms: CA_63  and  CB_66
REMARK   22  A    between atoms: C_64  and  OXT_76
REMARK   23  A    between atoms: CB_66  and  CG_67
REMARK                            x       y       z     vdW  Elec       q    Type
REMARK                         _______ _______ _______ _____ _____    ______ ____
ROOT
ATOM      1  CA  TYR A   4       9.721 -16.808   1.352  0.00  0.00    +0.000 C 
ENDROOT
BRANCH   1   2
ATOM      2  C   TYR A   4       9.931 -15.859   2.566  0.00  0.00    +0.000 C 
ATOM      3  O   TYR A   4       9.201 -15.934   3.557  0.00  0.00    +0.000 OA
ATOM      4  N   TRP A   5      11.025 -15.020   2.551  0.00  0.00    +0.000 N 
ATOM      5  H38 UNL     1      11.491 -14.810   1.678  0.00  0.00    +0.000 HD
BRANCH   4   6
ATOM      6  CA  TRP A   5      11.311 -14.088   3.678  0.00  0.00    +0.000 C 
BRANCH   6   7
ATOM      7  C   TRP A   5      10.660 -12.698   3.455  0.00  0.00    +0.000 C 
ATOM      8  O   TRP A   5      10.638 -11.808   4.301  0.00  0.00    +0.000 OA
ATOM      9  N   TRP A   6      10.153 -12.518   2.196  0.00  0.00    +0.000 N 
ATOM     10  H48 UNL     1       9.949 -13.353   1.664  0.00  0.00    +0.000 HD
BRANCH   9  11
ATOM     11  CA  TRP A   6       9.309 -11.379   1.817  0.00  0.00    +0.000 C 
BRANCH  11  12
ATOM     12  C   TRP A   6       8.448 -11.816   0.627  0.00  0.00    +0.000 C 
ATOM     13  O   TRP A   6       7.584 -11.159   0.061  0.00  0.00    +0.000 OA
BRANCH  12  14
ATOM     14  OXT TRP A   6       8.733 -13.092   0.271  0.00  0.00    +0.000 OA
ATOM     15  H58 UNL     1       7.951 -13.475  -0.202  0.00  0.00    +0.000 HD
ENDBRANCH  12  14
ENDBRANCH  11  12
BRANCH  11  16
ATOM     16  CB  TRP A   6      10.085 -10.100   1.506  0.00  0.00    +0.000 C 
BRANCH  16  17
ATOM     17  CG  TRP A   6      11.252 -10.275   0.575  0.00  0.00    +0.000 A 
ATOM     18  CD1 TRP A   6      11.199 -10.560  -0.776  0.00  0.00    +0.000 A 
ATOM     19  CD2 TRP A   6      12.639 -10.146   0.916  0.00  0.00    +0.000 A 
ATOM     20  NE1 TRP A   6      12.483 -10.605  -1.258  0.00  0.00    +0.000 N 
ATOM     21  CE2 TRP A   6      13.381 -10.355  -0.247  0.00  0.00    +0.000 A 
ATOM     22  CE3 TRP A   6      13.335  -9.848   2.106  0.00  0.00    +0.000 A 
ATOM     23  CZ2 TRP A   6      14.780 -10.283  -0.281  0.00  0.00    +0.000 A 
ATOM     24  CZ3 TRP A   6      14.732  -9.760   2.089  0.00  0.00    +0.000 A 
ATOM     25  CH2 TRP A   6      15.441  -9.978   0.912  0.00  0.00    +0.000 A 
ATOM     26  H53 UNL     1      12.734 -10.787  -2.220  0.00  0.00    +0.000 HD
ENDBRANCH  16  17
ENDBRANCH  11  16
ENDBRANCH   9  11
ENDBRANCH   6   7
BRANCH   6  27
ATOM     27  CB  TRP A   5      12.831 -13.945   3.849  0.00  0.00    +0.000 C 
BRANCH  27  28
ATOM     28  CG  TRP A   5      13.255 -13.404   5.179  0.00  0.00    +0.000 A 
ATOM     29  CD1 TRP A   5      13.891 -12.197   5.397  0.00  0.00    +0.000 A 
ATOM     30  CD2 TRP A   5      13.093 -14.023   6.461  0.00  0.00    +0.000 A 
ATOM     31  NE1 TRP A   5      14.080 -12.045   6.743  0.00  0.00    +0.000 N 
ATOM     32  CE2 TRP A   5      13.609 -13.147   7.417  0.00  0.00    +0.000 A 
ATOM     33  CE3 TRP A   5      12.541 -15.243   6.902  0.00  0.00    +0.000 A 
ATOM     34  CZ2 TRP A   5      13.590 -13.422   8.789  0.00  0.00    +0.000 A 
ATOM     35  CZ3 TRP A   5      12.508 -15.533   8.271  0.00  0.00    +0.000 A 
ATOM     36  CH2 TRP A   5      13.025 -14.633   9.199  0.00  0.00    +0.000 A 
ATOM     37  H43 UNL     1      14.499 -11.238   7.185  0.00  0.00    +0.000 HD
ENDBRANCH  27  28
ENDBRANCH   6  27
ENDBRANCH   4   6
ENDBRANCH   1   2
BRANCH   1  40
ATOM     38  C   PRO A   3       7.286 -16.351   0.978  0.00  0.00    +0.000 C 
ATOM     39  O   PRO A   3       7.503 -15.220   0.539  0.00  0.00    +0.000 OA
ATOM     40  N   TYR A   4       8.304 -17.214   1.351  0.00  0.00    +0.000 N 
ATOM     41  H29 UNL     1       8.067 -17.884   2.068  0.00  0.00    +0.000 HD
BRANCH  38  45
ATOM     42  C   TRP A   2       4.624 -15.779  -0.531  0.00  0.00    +0.000 C 
ATOM     43  O   TRP A   2       5.583 -15.880  -1.296  0.00  0.00    +0.000 OA
ATOM     44  N   PRO A   3       4.664 -16.216   0.803  0.00  0.00    +0.000 N 
ATOM     45  CA  PRO A   3       5.873 -16.849   1.342  0.00  0.00    +0.000 C 
ATOM     46  CB  PRO A   3       5.559 -18.326   1.159  0.00  0.00    +0.000 C 
ATOM     47  CG  PRO A   3       4.072 -18.392   1.531  0.00  0.00    +0.000 C 
ATOM     48  CD  PRO A   3       3.537 -16.966   1.341  0.00  0.00    +0.000 C 
BRANCH  42  49
ATOM     49  CA  TRP A   2       3.294 -15.125  -0.990  0.00  0.00    +0.000 C 
BRANCH  49  52
ATOM     50  C   TRP A   1       3.435 -12.656  -0.791  0.00  0.00    +0.000 C 
ATOM     51  O   TRP A   1       3.300 -12.691   0.427  0.00  0.00    +0.000 OA
ATOM     52  N   TRP A   2       3.497 -13.794  -1.563  0.00  0.00    +0.000 N 
ATOM     53  H12 UNL     1       3.912 -13.739  -2.489  0.00  0.00    +0.000 HD
BRANCH  50  54
ATOM     54  CA  TRP A   1       3.480 -11.337  -1.595  0.00  0.00    +0.000 C 
BRANCH  54  55
ATOM     55  N   TRP A   1       2.827 -10.267  -0.793  0.00  0.00    +0.000 NA
ATOM     56  H1  UNL     1       3.387 -10.148   0.057  0.00  0.00    +0.000 HD
ATOM     57  H2  UNL     1       1.936 -10.632  -0.454  0.00  0.00    +0.000 HD
ENDBRANCH  54  55
BRANCH  54  58
ATOM     58  CB  TRP A   1       4.929 -10.991  -1.977  0.00  0.00    +0.000 C 
BRANCH  58  59
ATOM     59  CG  TRP A   1       5.057 -10.196  -3.250  0.00  0.00    +0.000 A 
ATOM     60  CD1 TRP A   1       4.294  -9.106  -3.628  0.00  0.00    +0.000 A 
ATOM     61  CD2 TRP A   1       6.022 -10.400  -4.289  0.00  0.00    +0.000 A 
ATOM     62  NE1 TRP A   1       4.750  -8.656  -4.837  0.00  0.00    +0.000 N 
ATOM     63  CE2 TRP A   1       5.803  -9.427  -5.265  0.00  0.00    +0.000 A 
ATOM     64  CE3 TRP A   1       7.074 -11.320  -4.486  0.00  0.00    +0.000 A 
ATOM     65  CZ2 TRP A   1       6.576  -9.331  -6.429  0.00  0.00    +0.000 A 
ATOM     66  CZ3 TRP A   1       7.857 -11.236  -5.643  0.00  0.00    +0.000 A 
ATOM     67  CH2 TRP A   1       7.609 -10.257  -6.600  0.00  0.00    +0.000 A 
ATOM     68  H7  UNL     1       4.379  -7.861  -5.338  0.00  0.00    +0.000 HD
ENDBRANCH  58  59
ENDBRANCH  54  58
ENDBRANCH  50  54
ENDBRANCH  49  52
BRANCH  49  69
ATOM     69  CB  TRP A   2       2.531 -16.058  -1.955  0.00  0.00    +0.000 C 
BRANCH  69  70
ATOM     70  CG  TRP A   2       3.039 -16.081  -3.369  0.00  0.00    +0.000 A 
ATOM     71  CD1 TRP A   2       3.967 -16.961  -3.892  0.00  0.00    +0.000 A 
ATOM     72  CD2 TRP A   2       2.655 -15.204  -4.437  0.00  0.00    +0.000 A 
ATOM     73  NE1 TRP A   2       4.169 -16.644  -5.207  0.00  0.00    +0.000 N 
ATOM     74  CE2 TRP A   2       3.383 -15.575  -5.566  0.00  0.00    +0.000 A 
ATOM     75  CE3 TRP A   2       1.768 -14.113  -4.540  0.00  0.00    +0.000 A 
ATOM     76  CZ2 TRP A   2       3.265 -14.915  -6.795  0.00  0.00    +0.000 A 
ATOM     77  CZ3 TRP A   2       1.642 -13.435  -5.760  0.00  0.00    +0.000 A 
ATOM     78  CH2 TRP A   2       2.382 -13.832  -6.870  0.00  0.00    +0.000 A 
ATOM     79  H17 UNL     1       4.809 -17.112  -5.832  0.00  0.00    +0.000 HD
ENDBRANCH  69  70
ENDBRANCH  49  69
ENDBRANCH  42  49
ENDBRANCH  38  45
ENDBRANCH   1  40
BRANCH   1  80
ATOM     80  CB  TYR A   4      10.258 -16.330  -0.007  0.00  0.00    +0.000 C 
BRANCH  80  81
ATOM     81  CG  TYR A   4       9.986 -17.303  -1.134  0.00  0.00    +0.000 A 
ATOM     82  CD1 TYR A   4      10.756 -18.463  -1.283  0.00  0.00    +0.000 A 
ATOM     83  CD2 TYR A   4       8.928 -17.073  -2.025  0.00  0.00    +0.000 A 
ATOM     84  CE1 TYR A   4      10.468 -19.373  -2.300  0.00  0.00    +0.000 A 
ATOM     85  CE2 TYR A   4       8.636 -17.984  -3.041  0.00  0.00    +0.000 A 
ATOM     86  CZ  TYR A   4       9.410 -19.130  -3.168  0.00  0.00    +0.000 A 
BRANCH  86  87
ATOM     87  OH  TYR A   4       9.159 -20.054  -4.140  0.00  0.00    +0.000 OA
ATOM     88  H37 UNL     1       8.379 -19.760  -4.638  0.00  0.00    +0.000 HD
ENDBRANCH  86  87
ENDBRANCH  80  81
ENDBRANCH   1  80
TORSDOF 23
