REMARK  Name = ../resources/tmp/bioai_ga_427423/p_WPPWWW_427423/WPPWWW_427423.pdb
REMARK  19 active torsions:
REMARK  status: ('A' for Active; 'I' for Inactive)
REMARK    1  A    between atoms: N_1  and  CA_2
REMARK    2  A    between atoms: CA_2  and  C_3
REMARK    3  A    between atoms: CA_2  and  CB_5
REMARK    4  A    between atoms: CB_5  and  CG_6
REMARK    5  A    between atoms: CA_16  and  C_17
REMARK    6  A    between atoms: CA_23  and  C_24
REMARK    7  A    between atoms: N_29  and  CA_30
REMARK    8  A    between atoms: CA_30  and  C_31
REMARK    9  A    between atoms: CA_30  and  CB_33
REMARK   10  A    between atoms: CB_33  and  CG_34
REMARK   11  A    between atoms: N_43  and  CA_44
REMARK   12  A    between atoms: CA_44  and  C_45
REMARK   13  A    between atoms: CA_44  and  CB_47
REMARK   14  A    between atoms: CB_47  and  CG_48
REMARK   15  A    between atoms: N_57  and  CA_58
REMARK   16  A    between atoms: CA_58  and  C_59
REMARK   17  A    between atoms: CA_58  and  CB_61
REMARK   18  A    between atoms: C_59  and  OXT_71
REMARK   19  A    between atoms: CB_61  and  CG_62
REMARK                            x       y       z     vdW  Elec       q    Type
REMARK                         _______ _______ _______ _____ _____    ______ ____
ROOT
ATOM      1  CA  TRP A   4       8.606 -16.370   2.018  0.00  0.00    +0.000 C 
ENDROOT
BRANCH   1   4
ATOM      2  C   PRO A   3       7.724 -16.186  -0.308  0.00  0.00    +0.000 C 
ATOM      3  O   PRO A   3       8.194 -15.056  -0.446  0.00  0.00    +0.000 OA
ATOM      4  N   TRP A   4       7.903 -16.925   0.847  0.00  0.00    +0.000 N 
ATOM      5  H26 UNL     1       7.245 -17.671   1.034  0.00  0.00    +0.000 HD
BRANCH   2   9
ATOM      6  C   PRO A   2       6.261 -15.032  -3.065  0.00  0.00    +0.000 C 
ATOM      7  O   PRO A   2       6.277 -14.655  -4.239  0.00  0.00    +0.000 OA
ATOM      8  N   PRO A   3       6.872 -16.220  -2.695  0.00  0.00    +0.000 N 
ATOM      9  CA  PRO A   3       6.869 -16.892  -1.384  0.00  0.00    +0.000 C 
ATOM     10  CB  PRO A   3       7.468 -18.281  -1.673  0.00  0.00    +0.000 C 
ATOM     11  CG  PRO A   3       7.301 -18.469  -3.172  0.00  0.00    +0.000 C 
ATOM     12  CD  PRO A   3       7.484 -17.059  -3.709  0.00  0.00    +0.000 C 
BRANCH   6  16
ATOM     13  C   TRP A   1       6.173 -11.931  -2.269  0.00  0.00    +0.000 C 
ATOM     14  O   TRP A   1       7.293 -12.232  -1.838  0.00  0.00    +0.000 OA
ATOM     15  N   PRO A   2       5.182 -12.880  -2.385  0.00  0.00    +0.000 N 
ATOM     16  CA  PRO A   2       5.439 -14.268  -1.997  0.00  0.00    +0.000 C 
ATOM     17  CB  PRO A   2       4.033 -14.869  -1.887  0.00  0.00    +0.000 C 
ATOM     18  CG  PRO A   2       3.255 -14.128  -2.968  0.00  0.00    +0.000 C 
ATOM     19  CD  PRO A   2       3.840 -12.721  -2.929  0.00  0.00    +0.000 C 
BRANCH  13  20
ATOM     20  CA  TRP A   1       5.890 -10.452  -2.626  0.00  0.00    +0.000 C 
BRANCH  20  21
ATOM     21  N   TRP A   1       5.399 -10.314  -4.016  0.00  0.00    +0.000 NA
ATOM     22  H1  UNL     1       6.061 -10.790  -4.632  0.00  0.00    +0.000 HD
ATOM     23  H2  UNL     1       5.454  -9.324  -4.267  0.00  0.00    +0.000 HD
ENDBRANCH  20  21
BRANCH  20  24
ATOM     24  CB  TRP A   1       4.963  -9.809  -1.580  0.00  0.00    +0.000 C 
BRANCH  24  25
ATOM     25  CG  TRP A   1       5.072  -8.313  -1.528  0.00  0.00    +0.000 A 
ATOM     26  CD1 TRP A   1       5.863  -7.582  -0.664  0.00  0.00    +0.000 A 
ATOM     27  CD2 TRP A   1       4.369  -7.366  -2.345  0.00  0.00    +0.000 A 
ATOM     28  NE1 TRP A   1       5.686  -6.251  -0.936  0.00  0.00    +0.000 N 
ATOM     29  CE2 TRP A   1       4.788  -6.090  -1.963  0.00  0.00    +0.000 A 
ATOM     30  CE3 TRP A   1       3.419  -7.476  -3.385  0.00  0.00    +0.000 A 
ATOM     31  CZ2 TRP A   1       4.314  -4.921  -2.573  0.00  0.00    +0.000 A 
ATOM     32  CZ3 TRP A   1       2.939  -6.318  -4.008  0.00  0.00    +0.000 A 
ATOM     33  CH2 TRP A   1       3.384  -5.061  -3.607  0.00  0.00    +0.000 A 
ATOM     34  H7  UNL     1       6.149  -5.491  -0.458  0.00  0.00    +0.000 HD
ENDBRANCH  24  25
ENDBRANCH  20  24
ENDBRANCH  13  20
ENDBRANCH   6  16
ENDBRANCH   2   9
ENDBRANCH   1   4
BRANCH   1  35
ATOM     35  C   TRP A   4      10.099 -16.217   1.652  0.00  0.00    +0.000 C 
ATOM     36  O   TRP A   4      10.931 -17.113   1.768  0.00  0.00    +0.000 OA
ATOM     37  N   TRP A   5      10.360 -15.013   1.050  0.00  0.00    +0.000 N 
ATOM     38  H36 UNL     1       9.541 -14.504   0.716  0.00  0.00    +0.000 HD
BRANCH  37  39
ATOM     39  CA  TRP A   5      11.632 -14.660   0.415  0.00  0.00    +0.000 C 
BRANCH  39  40
ATOM     40  C   TRP A   5      11.630 -13.121   0.351  0.00  0.00    +0.000 C 
ATOM     41  O   TRP A   5      12.593 -12.444   0.703  0.00  0.00    +0.000 OA
ATOM     42  N   TRP A   6      10.460 -12.554  -0.131  0.00  0.00    +0.000 N 
ATOM     43  H46 UNL     1       9.800 -13.111  -0.666  0.00  0.00    +0.000 HD
BRANCH  42  44
ATOM     44  CA  TRP A   6      10.212 -11.113  -0.081  0.00  0.00    +0.000 C 
BRANCH  44  45
ATOM     45  C   TRP A   6      11.072 -10.309  -1.061  0.00  0.00    +0.000 C 
ATOM     46  O   TRP A   6      11.187  -9.090  -1.081  0.00  0.00    +0.000 OA
BRANCH  45  47
ATOM     47  OXT TRP A   6      11.660 -11.046  -2.028  0.00  0.00    +0.000 OA
ATOM     48  H56 UNL     1      12.151 -10.386  -2.563  0.00  0.00    +0.000 HD
ENDBRANCH  45  47
ENDBRANCH  44  45
BRANCH  44  49
ATOM     49  CB  TRP A   6      10.292 -10.508   1.334  0.00  0.00    +0.000 C 
BRANCH  49  50
ATOM     50  CG  TRP A   6       9.263 -11.060   2.284  0.00  0.00    +0.000 A 
ATOM     51  CD1 TRP A   6       7.933 -10.685   2.345  0.00  0.00    +0.000 A 
ATOM     52  CD2 TRP A   6       9.464 -12.040   3.313  0.00  0.00    +0.000 A 
ATOM     53  NE1 TRP A   6       7.335 -11.379   3.361  0.00  0.00    +0.000 N 
ATOM     54  CE2 TRP A   6       8.244 -12.209   3.973  0.00  0.00    +0.000 A 
ATOM     55  CE3 TRP A   6      10.574 -12.785   3.767  0.00  0.00    +0.000 A 
ATOM     56  CZ2 TRP A   6       8.082 -13.077   5.060  0.00  0.00    +0.000 A 
ATOM     57  CZ3 TRP A   6      10.423 -13.673   4.839  0.00  0.00    +0.000 A 
ATOM     58  CH2 TRP A   6       9.194 -13.812   5.479  0.00  0.00    +0.000 A 
ATOM     59  H51 UNL     1       6.369 -11.288   3.635  0.00  0.00    +0.000 HD
ENDBRANCH  49  50
ENDBRANCH  44  49
ENDBRANCH  42  44
ENDBRANCH  39  40
BRANCH  39  60
ATOM     60  CB  TRP A   5      11.764 -15.286  -0.978  0.00  0.00    +0.000 C 
BRANCH  60  61
ATOM     61  CG  TRP A   5      13.160 -15.212  -1.514  0.00  0.00    +0.000 A 
ATOM     62  CD1 TRP A   5      13.660 -14.252  -2.371  0.00  0.00    +0.000 A 
ATOM     63  CD2 TRP A   5      14.232 -16.117  -1.230  0.00  0.00    +0.000 A 
ATOM     64  NE1 TRP A   5      14.979 -14.533  -2.608  0.00  0.00    +0.000 N 
ATOM     65  CE2 TRP A   5      15.352 -15.671  -1.932  0.00  0.00    +0.000 A 
ATOM     66  CE3 TRP A   5      14.355 -17.272  -0.430  0.00  0.00    +0.000 A 
ATOM     67  CZ2 TRP A   5      16.588 -16.329  -1.885  0.00  0.00    +0.000 A 
ATOM     68  CZ3 TRP A   5      15.583 -17.942  -0.372  0.00  0.00    +0.000 A 
ATOM     69  CH2 TRP A   5      16.682 -17.476  -1.091  0.00  0.00    +0.000 A 
ATOM     70  H41 UNL     1      15.598 -13.984  -3.188  0.00  0.00    +0.000 HD
ENDBRANCH  60  61
ENDBRANCH  39  60
ENDBRANCH  37  39
ENDBRANCH   1  35
BRANCH   1  71
ATOM     71  CB  TRP A   4       8.468 -17.280   3.248  0.00  0.00    +0.000 C 
BRANCH  71  72
ATOM     72  CG  TRP A   4       7.037 -17.442   3.680  0.00  0.00    +0.000 A 
ATOM     73  CD1 TRP A   4       6.210 -16.441   4.157  0.00  0.00    +0.000 A 
ATOM     74  CD2 TRP A   4       6.262 -18.646   3.668  0.00  0.00    +0.000 A 
ATOM     75  NE1 TRP A   4       4.985 -16.985   4.431  0.00  0.00    +0.000 N 
ATOM     76  CE2 TRP A   4       4.986 -18.327   4.134  0.00  0.00    +0.000 A 
ATOM     77  CE3 TRP A   4       6.526 -19.981   3.299  0.00  0.00    +0.000 A 
ATOM     78  CZ2 TRP A   4       3.961 -19.274   4.253  0.00  0.00    +0.000 A 
ATOM     79  CZ3 TRP A   4       5.513 -20.943   3.420  0.00  0.00    +0.000 A 
ATOM     80  CH2 TRP A   4       4.251 -20.591   3.889  0.00  0.00    +0.000 A 
ATOM     81  H31 UNL     1       4.191 -16.482   4.802  0.00  0.00    +0.000 HD
ENDBRANCH  71  72
ENDBRANCH   1  71
TORSDOF 19
